t 0.007 /NodeList/1/DeviceList/0/$ns3::WifiNetDevice/Phy/State/Tx DsssRate1Mbps ns3::WifiMacHeader (DATA ToDS=0, FromDS=0, MoreFrag=0, Retry=0, MoreData=0 Duration/ID=0us, DA=ff:ff:ff:ff:ff:ff, SA=00:00:00:00:00:02, BSSID=00:00:00:00:00:02, FragNumber=0, SeqNumber=0) ns3::LlcSnapHeader (type 0x800) ns3::Ipv4Header (tos 0x0 DSCP Default ECN Not-ECT ttl 1 id 0 protocol 17 offset (bytes) 0 flags [none] length: 48 10.1.1.2 > 255.255.255.255) ns3::UdpHeader (length: 28 4305 > 4305) ns3::BatmanPacket (BatmanPacket(Version=1, TTL=50, TQ=255, SeqNum=1, Orig=10.1.1.2, PrevSender=10.1.1.2, NumNeighbors=0)) ns3::WifiMacTrailer ()
r 0.00786433 DsssRate1Mbps/NodeList/0/DeviceList/0/$ns3::WifiNetDevice/Phy/State/RxOk ns3::WifiMacHeader (DATA ToDS=0, FromDS=0, MoreFrag=0, Retry=0, MoreData=0 Duration/ID=0us, DA=ff:ff:ff:ff:ff:ff, SA=00:00:00:00:00:02, BSSID=00:00:00:00:00:02, FragNumber=0, SeqNumber=0) ns3::LlcSnapHeader (type 0x800) ns3::Ipv4Header (tos 0x0 DSCP Default ECN Not-ECT ttl 1 id 0 protocol 17 offset (bytes) 0 flags [none] length: 48 10.1.1.2 > 255.255.255.255) ns3::UdpHeader (length: 28 4305 > 4305) ns3::BatmanPacket (BatmanPacket(Version=1, TTL=50, TQ=255, SeqNum=1, Orig=10.1.1.2, PrevSender=10.1.1.2, NumNeighbors=0)) ns3::WifiMacTrailer ()
r 0.00786433 DsssRate1Mbps/NodeList/2/DeviceList/0/$ns3::WifiNetDevice/Phy/State/RxOk ns3::WifiMacHeader (DATA ToDS=0, FromDS=0, MoreFrag=0, Retry=0, MoreData=0 Duration/ID=0us, DA=ff:ff:ff:ff:ff:ff, SA=00:00:00:00:00:02, BSSID=00:00:00:00:00:02, FragNumber=0, SeqNumber=0) ns3::LlcSnapHeader (type 0x800) ns3::Ipv4Header (tos 0x0 DSCP Default ECN Not-ECT ttl 1 id 0 protocol 17 offset (bytes) 0 flags [none] length: 48 10.1.1.2 > 255.255.255.255) ns3::UdpHeader (length: 28 4305 > 4305) ns3::BatmanPacket (BatmanPacket(Version=1, TTL=50, TQ=255, SeqNum=1, Orig=10.1.1.2, PrevSender=10.1.1.2, NumNeighbors=0)) ns3::WifiMacTrailer ()
r 0.00786433 DsssRate1Mbps/NodeList/6/DeviceList/0/$ns3::WifiNetDevice/Phy/State/RxOk ns3::WifiMacHeader (DATA ToDS=0, FromDS=0, MoreFrag=0, Retry=0, MoreData=0 Duration/ID=0us, DA=ff:ff:ff:ff:ff:ff, SA=00:00:00:00:00:02, BSSID=00:00:00:00:00:02, FragNumber=0, SeqNumber=0) ns3::LlcSnapHeader (type 0x800) ns3::Ipv4Header (tos 0x0 DSCP Default ECN Not-ECT ttl 1 id 0 protocol 17 offset (bytes) 0 flags [none] length: 48 10.1.1.2 > 255.255.255.255) ns3::UdpHeader (length: 28 4305 > 4305) ns3::BatmanPacket (BatmanPacket(Version=1, TTL=50, TQ=255, SeqNum=1, Orig=10.1.1.2, PrevSender=10.1.1.2, NumNeighbors=0)) ns3::WifiMacTrailer ()
r 0.00786447 DsssRate1Mbps/NodeList/7/DeviceList/0/$ns3::WifiNetDevice/Phy/State/RxOk ns3::WifiMacHeader (DATA ToDS=0, FromDS=0, MoreFrag=0, Retry=0, MoreData=0 Duration/ID=0us, DA=ff:ff:ff:ff:ff:ff, SA=00:00:00:00:00:02, BSSID=00:00:00:00:00:02, FragNumber=0, SeqNumber=0) ns3::LlcSnapHeader (type 0x800) ns3::Ipv4Header (tos 0x0 DSCP Default ECN Not-ECT ttl 1 id 0 protocol 17 offset (bytes) 0 flags [none] length: 48 10.1.1.2 > 255.255.255.255) ns3::UdpHeader (length: 28 4305 > 4305) ns3::BatmanPacket (BatmanPacket(Version=1, TTL=50, TQ=255, SeqNum=1, Orig=10.1.1.2, PrevSender=10.1.1.2, NumNeighbors=0)) ns3::WifiMacTrailer ()
r 0.00786447 DsssRate1Mbps/NodeList/5/DeviceList/0/$ns3::WifiNetDevice/Phy/State/RxOk ns3::WifiMacHeader (DATA ToDS=0, FromDS=0, MoreFrag=0, Retry=0, MoreData=0 Duration/ID=0us, DA=ff:ff:ff:ff:ff:ff, SA=00:00:00:00:00:02, BSSID=00:00:00:00:00:02, FragNumber=0, SeqNumber=0) ns3::LlcSnapHeader (type 0x800) ns3::Ipv4Header (tos 0x0 DSCP Default ECN Not-ECT ttl 1 id 0 protocol 17 offset (bytes) 0 flags [none] length: 48 10.1.1.2 > 255.255.255.255) ns3::UdpHeader (length: 28 4305 > 4305) ns3::BatmanPacket (BatmanPacket(Version=1, TTL=50, TQ=255, SeqNum=1, Orig=10.1.1.2, PrevSender=10.1.1.2, NumNeighbors=0)) ns3::WifiMacTrailer ()
r 0.00786467 DsssRate1Mbps/NodeList/3/DeviceList/0/$ns3::WifiNetDevice/Phy/State/RxOk ns3::WifiMacHeader (DATA ToDS=0, FromDS=0, MoreFrag=0, Retry=0, MoreData=0 Duration/ID=0us, DA=ff:ff:ff:ff:ff:ff, SA=00:00:00:00:00:02, BSSID=00:00:00:00:00:02, FragNumber=0, SeqNumber=0) ns3::LlcSnapHeader (type 0x800) ns3::Ipv4Header (tos 0x0 DSCP Default ECN Not-ECT ttl 1 id 0 protocol 17 offset (bytes) 0 flags [none] length: 48 10.1.1.2 > 255.255.255.255) ns3::UdpHeader (length: 28 4305 > 4305) ns3::BatmanPacket (BatmanPacket(Version=1, TTL=50, TQ=255, SeqNum=1, Orig=10.1.1.2, PrevSender=10.1.1.2, NumNeighbors=0)) ns3::WifiMacTrailer ()
r 0.00786474 DsssRate1Mbps/NodeList/8/DeviceList/0/$ns3::WifiNetDevice/Phy/State/RxOk ns3::WifiMacHeader (DATA ToDS=0, FromDS=0, MoreFrag=0, Retry=0, MoreData=0 Duration/ID=0us, DA=ff:ff:ff:ff:ff:ff, SA=00:00:00:00:00:02, BSSID=00:00:00:00:00:02, FragNumber=0, SeqNumber=0) ns3::LlcSnapHeader (type 0x800) ns3::Ipv4Header (tos 0x0 DSCP Default ECN Not-ECT ttl 1 id 0 protocol 17 offset (bytes) 0 flags [none] length: 48 10.1.1.2 > 255.255.255.255) ns3::UdpHeader (length: 28 4305 > 4305) ns3::BatmanPacket (BatmanPacket(Version=1, TTL=50, TQ=255, SeqNum=1, Orig=10.1.1.2, PrevSender=10.1.1.2, NumNeighbors=0)) ns3::WifiMacTrailer ()
r 0.007865 DsssRate1Mbps/NodeList/4/DeviceList/0/$ns3::WifiNetDevice/Phy/State/RxOk ns3::WifiMacHeader (DATA ToDS=0, FromDS=0, MoreFrag=0, Retry=0, MoreData=0 Duration/ID=0us, DA=ff:ff:ff:ff:ff:ff, SA=00:00:00:00:00:02, BSSID=00:00:00:00:00:02, FragNumber=0, SeqNumber=0) ns3::LlcSnapHeader (type 0x800) ns3::Ipv4Header (tos 0x0 DSCP Default ECN Not-ECT ttl 1 id 0 protocol 17 offset (bytes) 0 flags [none] length: 48 10.1.1.2 > 255.255.255.255) ns3::UdpHeader (length: 28 4305 > 4305) ns3::BatmanPacket (BatmanPacket(Version=1, TTL=50, TQ=255, SeqNum=1, Orig=10.1.1.2, PrevSender=10.1.1.2, NumNeighbors=0)) ns3::WifiMacTrailer ()
r 0.00786505 DsssRate1Mbps/NodeList/9/DeviceList/0/$ns3::WifiNetDevice/Phy/State/RxOk ns3::WifiMacHeader (DATA ToDS=0, FromDS=0, MoreFrag=0, Retry=0, MoreData=0 Duration/ID=0us, DA=ff:ff:ff:ff:ff:ff, SA=00:00:00:00:00:02, BSSID=00:00:00:00:00:02, FragNumber=0, SeqNumber=0) ns3::LlcSnapHeader (type 0x800) ns3::Ipv4Header (tos 0x0 DSCP Default ECN Not-ECT ttl 1 id 0 protocol 17 offset (bytes) 0 flags [none] length: 48 10.1.1.2 > 255.255.255.255) ns3::UdpHeader (length: 28 4305 > 4305) ns3::BatmanPacket (BatmanPacket(Version=1, TTL=50, TQ=255, SeqNum=1, Orig=10.1.1.2, PrevSender=10.1.1.2, NumNeighbors=0)) ns3::WifiMacTrailer ()
t 0.021 /NodeList/3/DeviceList/0/$ns3::WifiNetDevice/Phy/State/Tx DsssRate1Mbps ns3::WifiMacHeader (DATA ToDS=0, FromDS=0, MoreFrag=0, Retry=0, MoreData=0 Duration/ID=0us, DA=ff:ff:ff:ff:ff:ff, SA=00:00:00:00:00:04, BSSID=00:00:00:00:00:04, FragNumber=0, SeqNumber=0) ns3::LlcSnapHeader (type 0x800) ns3::Ipv4Header (tos 0x0 DSCP Default ECN Not-ECT ttl 1 id 0 protocol 17 offset (bytes) 0 flags [none] length: 48 10.1.1.4 > 255.255.255.255) ns3::UdpHeader (length: 28 4305 > 4305) ns3::BatmanPacket (BatmanPacket(Version=1, TTL=50, TQ=255, SeqNum=1, Orig=10.1.1.4, PrevSender=10.1.1.4, NumNeighbors=0)) ns3::WifiMacTrailer ()
r 0.0218643 DsssRate1Mbps/NodeList/4/DeviceList/0/$ns3::WifiNetDevice/Phy/State/RxOk ns3::WifiMacHeader (DATA ToDS=0, FromDS=0, MoreFrag=0, Retry=0, MoreData=0 Duration/ID=0us, DA=ff:ff:ff:ff:ff:ff, SA=00:00:00:00:00:04, BSSID=00:00:00:00:00:04, FragNumber=0, SeqNumber=0) ns3::LlcSnapHeader (type 0x800) ns3::Ipv4Header (tos 0x0 DSCP Default ECN Not-ECT ttl 1 id 0 protocol 17 offset (bytes) 0 flags [none] length: 48 10.1.1.4 > 255.255.255.255) ns3::UdpHeader (length: 28 4305 > 4305) ns3::BatmanPacket (BatmanPacket(Version=1, TTL=50, TQ=255, SeqNum=1, Orig=10.1.1.4, PrevSender=10.1.1.4, NumNeighbors=0)) ns3::WifiMacTrailer ()
r 0.0218643 DsssRate1Mbps/NodeList/2/DeviceList/0/$ns3::WifiNetDevice/Phy/State/RxOk ns3::WifiMacHeader (DATA ToDS=0, FromDS=0, MoreFrag=0, Retry=0, MoreData=0 Duration/ID=0us, DA=ff:ff:ff:ff:ff:ff, SA=00:00:00:00:00:04, BSSID=00:00:00:00:00:04, FragNumber=0, SeqNumber=0) ns3::LlcSnapHeader (type 0x800) ns3::Ipv4Header (tos 0x0 DSCP Default ECN Not-ECT ttl 1 id 0 protocol 17 offset (bytes) 0 flags [none] length: 48 10.1.1.4 > 255.255.255.255) ns3::UdpHeader (length: 28 4305 > 4305) ns3::BatmanPacket (BatmanPacket(Version=1, TTL=50, TQ=255, SeqNum=1, Orig=10.1.1.4, PrevSender=10.1.1.4, NumNeighbors=0)) ns3::WifiMacTrailer ()
r 0.0218643 DsssRate1Mbps/NodeList/8/DeviceList/0/$ns3::WifiNetDevice/Phy/State/RxOk ns3::WifiMacHeader (DATA ToDS=0, FromDS=0, MoreFrag=0, Retry=0, MoreData=0 Duration/ID=0us, DA=ff:ff:ff:ff:ff:ff, SA=00:00:00:00:00:04, BSSID=00:00:00:00:00:04, FragNumber=0, SeqNumber=0) ns3::LlcSnapHeader (type 0x800) ns3::Ipv4Header (tos 0x0 DSCP Default ECN Not-ECT ttl 1 id 0 protocol 17 offset (bytes) 0 flags [none] length: 48 10.1.1.4 > 255.255.255.255) ns3::UdpHeader (length: 28 4305 > 4305) ns3::BatmanPacket (BatmanPacket(Version=1, TTL=50, TQ=255, SeqNum=1, Orig=10.1.1.4, PrevSender=10.1.1.4, NumNeighbors=0)) ns3::WifiMacTrailer ()
r 0.0218645 DsssRate1Mbps/NodeList/9/DeviceList/0/$ns3::WifiNetDevice/Phy/State/RxOk ns3::WifiMacHeader (DATA ToDS=0, FromDS=0, MoreFrag=0, Retry=0, MoreData=0 Duration/ID=0us, DA=ff:ff:ff:ff:ff:ff, SA=00:00:00:00:00:04, BSSID=00:00:00:00:00:04, FragNumber=0, SeqNumber=0) ns3::LlcSnapHeader (type 0x800) ns3::Ipv4Header (tos 0x0 DSCP Default ECN Not-ECT ttl 1 id 0 protocol 17 offset (bytes) 0 flags [none] length: 48 10.1.1.4 > 255.255.255.255) ns3::UdpHeader (length: 28 4305 > 4305) ns3::BatmanPacket (BatmanPacket(Version=1, TTL=50, TQ=255, SeqNum=1, Orig=10.1.1.4, PrevSender=10.1.1.4, NumNeighbors=0)) ns3::WifiMacTrailer ()
r 0.0218645 DsssRate1Mbps/NodeList/7/DeviceList/0/$ns3::WifiNetDevice/Phy/State/RxOk ns3::WifiMacHeader (DATA ToDS=0, FromDS=0, MoreFrag=0, Retry=0, MoreData=0 Duration/ID=0us, DA=ff:ff:ff:ff:ff:ff, SA=00:00:00:00:00:04, BSSID=00:00:00:00:00:04, FragNumber=0, SeqNumber=0) ns3::LlcSnapHeader (type 0x800) ns3::Ipv4Header (tos 0x0 DSCP Default ECN Not-ECT ttl 1 id 0 protocol 17 offset (bytes) 0 flags [none] length: 48 10.1.1.4 > 255.255.255.255) ns3::UdpHeader (length: 28 4305 > 4305) ns3::BatmanPacket (BatmanPacket(Version=1, TTL=50, TQ=255, SeqNum=1, Orig=10.1.1.4, PrevSender=10.1.1.4, NumNeighbors=0)) ns3::WifiMacTrailer ()
r 0.0218647 DsssRate1Mbps/NodeList/1/DeviceList/0/$ns3::WifiNetDevice/Phy/State/RxOk ns3::WifiMacHeader (DATA ToDS=0, FromDS=0, MoreFrag=0, Retry=0, MoreData=0 Duration/ID=0us, DA=ff:ff:ff:ff:ff:ff, SA=00:00:00:00:00:04, BSSID=00:00:00:00:00:04, FragNumber=0, SeqNumber=0) ns3::LlcSnapHeader (type 0x800) ns3::Ipv4Header (tos 0x0 DSCP Default ECN Not-ECT ttl 1 id 0 protocol 17 offset (bytes) 0 flags [none] length: 48 10.1.1.4 > 255.255.255.255) ns3::UdpHeader (length: 28 4305 > 4305) ns3::BatmanPacket (BatmanPacket(Version=1, TTL=50, TQ=255, SeqNum=1, Orig=10.1.1.4, PrevSender=10.1.1.4, NumNeighbors=0)) ns3::WifiMacTrailer ()
r 0.0218647 DsssRate1Mbps/NodeList/6/DeviceList/0/$ns3::WifiNetDevice/Phy/State/RxOk ns3::WifiMacHeader (DATA ToDS=0, FromDS=0, MoreFrag=0, Retry=0, MoreData=0 Duration/ID=0us, DA=ff:ff:ff:ff:ff:ff, SA=00:00:00:00:00:04, BSSID=00:00:00:00:00:04, FragNumber=0, SeqNumber=0) ns3::LlcSnapHeader (type 0x800) ns3::Ipv4Header (tos 0x0 DSCP Default ECN Not-ECT ttl 1 id 0 protocol 17 offset (bytes) 0 flags [none] length: 48 10.1.1.4 > 255.255.255.255) ns3::UdpHeader (length: 28 4305 > 4305) ns3::BatmanPacket (BatmanPacket(Version=1, TTL=50, TQ=255, SeqNum=1, Orig=10.1.1.4, PrevSender=10.1.1.4, NumNeighbors=0)) ns3::WifiMacTrailer ()
r 0.021865 DsssRate1Mbps/NodeList/0/DeviceList/0/$ns3::WifiNetDevice/Phy/State/RxOk ns3::WifiMacHeader (DATA ToDS=0, FromDS=0, MoreFrag=0, Retry=0, MoreData=0 Duration/ID=0us, DA=ff:ff:ff:ff:ff:ff, SA=00:00:00:00:00:04, BSSID=00:00:00:00:00:04, FragNumber=0, SeqNumber=0) ns3::LlcSnapHeader (type 0x800) ns3::Ipv4Header (tos 0x0 DSCP Default ECN Not-ECT ttl 1 id 0 protocol 17 offset (bytes) 0 flags [none] length: 48 10.1.1.4 > 255.255.255.255) ns3::UdpHeader (length: 28 4305 > 4305) ns3::BatmanPacket (BatmanPacket(Version=1, TTL=50, TQ=255, SeqNum=1, Orig=10.1.1.4, PrevSender=10.1.1.4, NumNeighbors=0)) ns3::WifiMacTrailer ()
r 0.0218651 DsssRate1Mbps/NodeList/5/DeviceList/0/$ns3::WifiNetDevice/Phy/State/RxOk ns3::WifiMacHeader (DATA ToDS=0, FromDS=0, MoreFrag=0, Retry=0, MoreData=0 Duration/ID=0us, DA=ff:ff:ff:ff:ff:ff, SA=00:00:00:00:00:04, BSSID=00:00:00:00:00:04, FragNumber=0, SeqNumber=0) ns3::LlcSnapHeader (type 0x800) ns3::Ipv4Header (tos 0x0 DSCP Default ECN Not-ECT ttl 1 id 0 protocol 17 offset (bytes) 0 flags [none] length: 48 10.1.1.4 > 255.255.255.255) ns3::UdpHeader (length: 28 4305 > 4305) ns3::BatmanPacket (BatmanPacket(Version=1, TTL=50, TQ=255, SeqNum=1, Orig=10.1.1.4, PrevSender=10.1.1.4, NumNeighbors=0)) ns3::WifiMacTrailer ()
t 0.034 /NodeList/5/DeviceList/0/$ns3::WifiNetDevice/Phy/State/Tx DsssRate1Mbps ns3::WifiMacHeader (DATA ToDS=0, FromDS=0, MoreFrag=0, Retry=0, MoreData=0 Duration/ID=0us, DA=ff:ff:ff:ff:ff:ff, SA=00:00:00:00:00:06, BSSID=00:00:00:00:00:06, FragNumber=0, SeqNumber=0) ns3::LlcSnapHeader (type 0x800) ns3::Ipv4Header (tos 0x0 DSCP Default ECN Not-ECT ttl 1 id 0 protocol 17 offset (bytes) 0 flags [none] length: 48 10.1.1.6 > 255.255.255.255) ns3::UdpHeader (length: 28 4305 > 4305) ns3::BatmanPacket (BatmanPacket(Version=1, TTL=50, TQ=255, SeqNum=1, Orig=10.1.1.6, PrevSender=10.1.1.6, NumNeighbors=0)) ns3::WifiMacTrailer ()
r 0.0348643 DsssRate1Mbps/NodeList/0/DeviceList/0/$ns3::WifiNetDevice/Phy/State/RxOk ns3::WifiMacHeader (DATA ToDS=0, FromDS=0, MoreFrag=0, Retry=0, MoreData=0 Duration/ID=0us, DA=ff:ff:ff:ff:ff:ff, SA=00:00:00:00:00:06, BSSID=00:00:00:00:00:06, FragNumber=0, SeqNumber=0) ns3::LlcSnapHeader (type 0x800) ns3::Ipv4Header (tos 0x0 DSCP Default ECN Not-ECT ttl 1 id 0 protocol 17 offset (bytes) 0 flags [none] length: 48 10.1.1.6 > 255.255.255.255) ns3::UdpHeader (length: 28 4305 > 4305) ns3::BatmanPacket (BatmanPacket(Version=1, TTL=50, TQ=255, SeqNum=1, Orig=10.1.1.6, PrevSender=10.1.1.6, NumNeighbors=0)) ns3::WifiMacTrailer ()
r 0.0348643 DsssRate1Mbps/NodeList/6/DeviceList/0/$ns3::WifiNetDevice/Phy/State/RxOk ns3::WifiMacHeader (DATA ToDS=0, FromDS=0, MoreFrag=0, Retry=0, MoreData=0 Duration/ID=0us, DA=ff:ff:ff:ff:ff:ff, SA=00:00:00:00:00:06, BSSID=00:00:00:00:00:06, FragNumber=0, SeqNumber=0) ns3::LlcSnapHeader (type 0x800) ns3::Ipv4Header (tos 0x0 DSCP Default ECN Not-ECT ttl 1 id 0 protocol 17 offset (bytes) 0 flags [none] length: 48 10.1.1.6 > 255.255.255.255) ns3::UdpHeader (length: 28 4305 > 4305) ns3::BatmanPacket (BatmanPacket(Version=1, TTL=50, TQ=255, SeqNum=1, Orig=10.1.1.6, PrevSender=10.1.1.6, NumNeighbors=0)) ns3::WifiMacTrailer ()
r 0.0348645 DsssRate1Mbps/NodeList/1/DeviceList/0/$ns3::WifiNetDevice/Phy/State/RxOk ns3::WifiMacHeader (DATA ToDS=0, FromDS=0, MoreFrag=0, Retry=0, MoreData=0 Duration/ID=0us, DA=ff:ff:ff:ff:ff:ff, SA=00:00:00:00:00:06, BSSID=00:00:00:00:00:06, FragNumber=0, SeqNumber=0) ns3::LlcSnapHeader (type 0x800) ns3::Ipv4Header (tos 0x0 DSCP Default ECN Not-ECT ttl 1 id 0 protocol 17 offset (bytes) 0 flags [none] length: 48 10.1.1.6 > 255.255.255.255) ns3::UdpHeader (length: 28 4305 > 4305) ns3::BatmanPacket (BatmanPacket(Version=1, TTL=50, TQ=255, SeqNum=1, Orig=10.1.1.6, PrevSender=10.1.1.6, NumNeighbors=0)) ns3::WifiMacTrailer ()
r 0.0348647 DsssRate1Mbps/NodeList/7/DeviceList/0/$ns3::WifiNetDevice/Phy/State/RxOk ns3::WifiMacHeader (DATA ToDS=0, FromDS=0, MoreFrag=0, Retry=0, MoreData=0 Duration/ID=0us, DA=ff:ff:ff:ff:ff:ff, SA=00:00:00:00:00:06, BSSID=00:00:00:00:00:06, FragNumber=0, SeqNumber=0) ns3::LlcSnapHeader (type 0x800) ns3::Ipv4Header (tos 0x0 DSCP Default ECN Not-ECT ttl 1 id 0 protocol 17 offset (bytes) 0 flags [none] length: 48 10.1.1.6 > 255.255.255.255) ns3::UdpHeader (length: 28 4305 > 4305) ns3::BatmanPacket (BatmanPacket(Version=1, TTL=50, TQ=255, SeqNum=1, Orig=10.1.1.6, PrevSender=10.1.1.6, NumNeighbors=0)) ns3::WifiMacTrailer ()
r 0.0348647 DsssRate1Mbps/NodeList/2/DeviceList/0/$ns3::WifiNetDevice/Phy/State/RxOk ns3::WifiMacHeader (DATA ToDS=0, FromDS=0, MoreFrag=0, Retry=0, MoreData=0 Duration/ID=0us, DA=ff:ff:ff:ff:ff:ff, SA=00:00:00:00:00:06, BSSID=00:00:00:00:00:06, FragNumber=0, SeqNumber=0) ns3::LlcSnapHeader (type 0x800) ns3::Ipv4Header (tos 0x0 DSCP Default ECN Not-ECT ttl 1 id 0 protocol 17 offset (bytes) 0 flags [none] length: 48 10.1.1.6 > 255.255.255.255) ns3::UdpHeader (length: 28 4305 > 4305) ns3::BatmanPacket (BatmanPacket(Version=1, TTL=50, TQ=255, SeqNum=1, Orig=10.1.1.6, PrevSender=10.1.1.6, NumNeighbors=0)) ns3::WifiMacTrailer ()
r 0.034865 DsssRate1Mbps/NodeList/8/DeviceList/0/$ns3::WifiNetDevice/Phy/State/RxOk ns3::WifiMacHeader (DATA ToDS=0, FromDS=0, MoreFrag=0, Retry=0, MoreData=0 Duration/ID=0us, DA=ff:ff:ff:ff:ff:ff, SA=00:00:00:00:00:06, BSSID=00:00:00:00:00:06, FragNumber=0, SeqNumber=0) ns3::LlcSnapHeader (type 0x800) ns3::Ipv4Header (tos 0x0 DSCP Default ECN Not-ECT ttl 1 id 0 protocol 17 offset (bytes) 0 flags [none] length: 48 10.1.1.6 > 255.255.255.255) ns3::UdpHeader (length: 28 4305 > 4305) ns3::BatmanPacket (BatmanPacket(Version=1, TTL=50, TQ=255, SeqNum=1, Orig=10.1.1.6, PrevSender=10.1.1.6, NumNeighbors=0)) ns3::WifiMacTrailer ()
r 0.0348651 DsssRate1Mbps/NodeList/3/DeviceList/0/$ns3::WifiNetDevice/Phy/State/RxOk ns3::WifiMacHeader (DATA ToDS=0, FromDS=0, MoreFrag=0, Retry=0, MoreData=0 Duration/ID=0us, DA=ff:ff:ff:ff:ff:ff, SA=00:00:00:00:00:06, BSSID=00:00:00:00:00:06, FragNumber=0, SeqNumber=0) ns3::LlcSnapHeader (type 0x800) ns3::Ipv4Header (tos 0x0 DSCP Default ECN Not-ECT ttl 1 id 0 protocol 17 offset (bytes) 0 flags [none] length: 48 10.1.1.6 > 255.255.255.255) ns3::UdpHeader (length: 28 4305 > 4305) ns3::BatmanPacket (BatmanPacket(Version=1, TTL=50, TQ=255, SeqNum=1, Orig=10.1.1.6, PrevSender=10.1.1.6, NumNeighbors=0)) ns3::WifiMacTrailer ()
r 0.0348653 DsssRate1Mbps/NodeList/9/DeviceList/0/$ns3::WifiNetDevice/Phy/State/RxOk ns3::WifiMacHeader (DATA ToDS=0, FromDS=0, MoreFrag=0, Retry=0, MoreData=0 Duration/ID=0us, DA=ff:ff:ff:ff:ff:ff, SA=00:00:00:00:00:06, BSSID=00:00:00:00:00:06, FragNumber=0, SeqNumber=0) ns3::LlcSnapHeader (type 0x800) ns3::Ipv4Header (tos 0x0 DSCP Default ECN Not-ECT ttl 1 id 0 protocol 17 offset (bytes) 0 flags [none] length: 48 10.1.1.6 > 255.255.255.255) ns3::UdpHeader (length: 28 4305 > 4305) ns3::BatmanPacket (BatmanPacket(Version=1, TTL=50, TQ=255, SeqNum=1, Orig=10.1.1.6, PrevSender=10.1.1.6, NumNeighbors=0)) ns3::WifiMacTrailer ()
r 0.0348654 DsssRate1Mbps/NodeList/4/DeviceList/0/$ns3::WifiNetDevice/Phy/State/RxOk ns3::WifiMacHeader (DATA ToDS=0, FromDS=0, MoreFrag=0, Retry=0, MoreData=0 Duration/ID=0us, DA=ff:ff:ff:ff:ff:ff, SA=00:00:00:00:00:06, BSSID=00:00:00:00:00:06, FragNumber=0, SeqNumber=0) ns3::LlcSnapHeader (type 0x800) ns3::Ipv4Header (tos 0x0 DSCP Default ECN Not-ECT ttl 1 id 0 protocol 17 offset (bytes) 0 flags [none] length: 48 10.1.1.6 > 255.255.255.255) ns3::UdpHeader (length: 28 4305 > 4305) ns3::BatmanPacket (BatmanPacket(Version=1, TTL=50, TQ=255, SeqNum=1, Orig=10.1.1.6, PrevSender=10.1.1.6, NumNeighbors=0)) ns3::WifiMacTrailer ()
t 0.045 /NodeList/0/DeviceList/0/$ns3::WifiNetDevice/Phy/State/Tx DsssRate1Mbps ns3::WifiMacHeader (DATA ToDS=0, FromDS=0, MoreFrag=0, Retry=0, MoreData=0 Duration/ID=0us, DA=ff:ff:ff:ff:ff:ff, SA=00:00:00:00:00:01, BSSID=00:00:00:00:00:01, FragNumber=0, SeqNumber=0) ns3::LlcSnapHeader (type 0x800) ns3::Ipv4Header (tos 0x0 DSCP Default ECN Not-ECT ttl 1 id 0 protocol 17 offset (bytes) 0 flags [none] length: 48 10.1.1.1 > 255.255.255.255) ns3::UdpHeader (length: 28 4305 > 4305) ns3::BatmanPacket (BatmanPacket(Version=1, TTL=50, TQ=255, SeqNum=1, Orig=10.1.1.1, PrevSender=10.1.1.1, NumNeighbors=0)) ns3::WifiMacTrailer ()
r 0.0458643 DsssRate1Mbps/NodeList/1/DeviceList/0/$ns3::WifiNetDevice/Phy/State/RxOk ns3::WifiMacHeader (DATA ToDS=0, FromDS=0, MoreFrag=0, Retry=0, MoreData=0 Duration/ID=0us, DA=ff:ff:ff:ff:ff:ff, SA=00:00:00:00:00:01, BSSID=00:00:00:00:00:01, FragNumber=0, SeqNumber=0) ns3::LlcSnapHeader (type 0x800) ns3::Ipv4Header (tos 0x0 DSCP Default ECN Not-ECT ttl 1 id 0 protocol 17 offset (bytes) 0 flags [none] length: 48 10.1.1.1 > 255.255.255.255) ns3::UdpHeader (length: 28 4305 > 4305) ns3::BatmanPacket (BatmanPacket(Version=1, TTL=50, TQ=255, SeqNum=1, Orig=10.1.1.1, PrevSender=10.1.1.1, NumNeighbors=0)) ns3::WifiMacTrailer ()
r 0.0458643 DsssRate1Mbps/NodeList/5/DeviceList/0/$ns3::WifiNetDevice/Phy/State/RxOk ns3::WifiMacHeader (DATA ToDS=0, FromDS=0, MoreFrag=0, Retry=0, MoreData=0 Duration/ID=0us, DA=ff:ff:ff:ff:ff:ff, SA=00:00:00:00:00:01, BSSID=00:00:00:00:00:01, FragNumber=0, SeqNumber=0) ns3::LlcSnapHeader (type 0x800) ns3::Ipv4Header (tos 0x0 DSCP Default ECN Not-ECT ttl 1 id 0 protocol 17 offset (bytes) 0 flags [none] length: 48 10.1.1.1 > 255.255.255.255) ns3::UdpHeader (length: 28 4305 > 4305) ns3::BatmanPacket (BatmanPacket(Version=1, TTL=50, TQ=255, SeqNum=1, Orig=10.1.1.1, PrevSender=10.1.1.1, NumNeighbors=0)) ns3::WifiMacTrailer ()
r 0.0458645 DsssRate1Mbps/NodeList/6/DeviceList/0/$ns3::WifiNetDevice/Phy/State/RxOk ns3::WifiMacHeader (DATA ToDS=0, FromDS=0, MoreFrag=0, Retry=0, MoreData=0 Duration/ID=0us, DA=ff:ff:ff:ff:ff:ff, SA=00:00:00:00:00:01, BSSID=00:00:00:00:00:01, FragNumber=0, SeqNumber=0) ns3::LlcSnapHeader (type 0x800) ns3::Ipv4Header (tos 0x0 DSCP Default ECN Not-ECT ttl 1 id 0 protocol 17 offset (bytes) 0 flags [none] length: 48 10.1.1.1 > 255.255.255.255) ns3::UdpHeader (length: 28 4305 > 4305) ns3::BatmanPacket (BatmanPacket(Version=1, TTL=50, TQ=255, SeqNum=1, Orig=10.1.1.1, PrevSender=10.1.1.1, NumNeighbors=0)) ns3::WifiMacTrailer ()
r 0.0458647 DsssRate1Mbps/NodeList/2/DeviceList/0/$ns3::WifiNetDevice/Phy/State/RxOk ns3::WifiMacHeader (DATA ToDS=0, FromDS=0, MoreFrag=0, Retry=0, MoreData=0 Duration/ID=0us, DA=ff:ff:ff:ff:ff:ff, SA=00:00:00:00:00:01, BSSID=00:00:00:00:00:01, FragNumber=0, SeqNumber=0) ns3::LlcSnapHeader (type 0x800) ns3::Ipv4Header (tos 0x0 DSCP Default ECN Not-ECT ttl 1 id 0 protocol 17 offset (bytes) 0 flags [none] length: 48 10.1.1.1 > 255.255.255.255) ns3::UdpHeader (length: 28 4305 > 4305) ns3::BatmanPacket (BatmanPacket(Version=1, TTL=50, TQ=255, SeqNum=1, Orig=10.1.1.1, PrevSender=10.1.1.1, NumNeighbors=0)) ns3::WifiMacTrailer ()
r 0.0458647 DsssRate1Mbps/NodeList/7/DeviceList/0/$ns3::WifiNetDevice/Phy/State/RxOk ns3::WifiMacHeader (DATA ToDS=0, FromDS=0, MoreFrag=0, Retry=0, MoreData=0 Duration/ID=0us, DA=ff:ff:ff:ff:ff:ff, SA=00:00:00:00:00:01, BSSID=00:00:00:00:00:01, FragNumber=0, SeqNumber=0) ns3::LlcSnapHeader (type 0x800) ns3::Ipv4Header (tos 0x0 DSCP Default ECN Not-ECT ttl 1 id 0 protocol 17 offset (bytes) 0 flags [none] length: 48 10.1.1.1 > 255.255.255.255) ns3::UdpHeader (length: 28 4305 > 4305) ns3::BatmanPacket (BatmanPacket(Version=1, TTL=50, TQ=255, SeqNum=1, Orig=10.1.1.1, PrevSender=10.1.1.1, NumNeighbors=0)) ns3::WifiMacTrailer ()
r 0.045865 DsssRate1Mbps/NodeList/3/DeviceList/0/$ns3::WifiNetDevice/Phy/State/RxOk ns3::WifiMacHeader (DATA ToDS=0, FromDS=0, MoreFrag=0, Retry=0, MoreData=0 Duration/ID=0us, DA=ff:ff:ff:ff:ff:ff, SA=00:00:00:00:00:01, BSSID=00:00:00:00:00:01, FragNumber=0, SeqNumber=0) ns3::LlcSnapHeader (type 0x800) ns3::Ipv4Header (tos 0x0 DSCP Default ECN Not-ECT ttl 1 id 0 protocol 17 offset (bytes) 0 flags [none] length: 48 10.1.1.1 > 255.255.255.255) ns3::UdpHeader (length: 28 4305 > 4305) ns3::BatmanPacket (BatmanPacket(Version=1, TTL=50, TQ=255, SeqNum=1, Orig=10.1.1.1, PrevSender=10.1.1.1, NumNeighbors=0)) ns3::WifiMacTrailer ()
r 0.0458651 DsssRate1Mbps/NodeList/8/DeviceList/0/$ns3::WifiNetDevice/Phy/State/RxOk ns3::WifiMacHeader (DATA ToDS=0, FromDS=0, MoreFrag=0, Retry=0, MoreData=0 Duration/ID=0us, DA=ff:ff:ff:ff:ff:ff, SA=00:00:00:00:00:01, BSSID=00:00:00:00:00:01, FragNumber=0, SeqNumber=0) ns3::LlcSnapHeader (type 0x800) ns3::Ipv4Header (tos 0x0 DSCP Default ECN Not-ECT ttl 1 id 0 protocol 17 offset (bytes) 0 flags [none] length: 48 10.1.1.1 > 255.255.255.255) ns3::UdpHeader (length: 28 4305 > 4305) ns3::BatmanPacket (BatmanPacket(Version=1, TTL=50, TQ=255, SeqNum=1, Orig=10.1.1.1, PrevSender=10.1.1.1, NumNeighbors=0)) ns3::WifiMacTrailer ()
r 0.0458653 DsssRate1Mbps/NodeList/4/DeviceList/0/$ns3::WifiNetDevice/Phy/State/RxOk ns3::WifiMacHeader (DATA ToDS=0, FromDS=0, MoreFrag=0, Retry=0, MoreData=0 Duration/ID=0us, DA=ff:ff:ff:ff:ff:ff, SA=00:00:00:00:00:01, BSSID=00:00:00:00:00:01, FragNumber=0, SeqNumber=0) ns3::LlcSnapHeader (type 0x800) ns3::Ipv4Header (tos 0x0 DSCP Default ECN Not-ECT ttl 1 id 0 protocol 17 offset (bytes) 0 flags [none] length: 48 10.1.1.1 > 255.255.255.255) ns3::UdpHeader (length: 28 4305 > 4305) ns3::BatmanPacket (BatmanPacket(Version=1, TTL=50, TQ=255, SeqNum=1, Orig=10.1.1.1, PrevSender=10.1.1.1, NumNeighbors=0)) ns3::WifiMacTrailer ()
r 0.0458654 DsssRate1Mbps/NodeList/9/DeviceList/0/$ns3::WifiNetDevice/Phy/State/RxOk ns3::WifiMacHeader (DATA ToDS=0, FromDS=0, MoreFrag=0, Retry=0, MoreData=0 Duration/ID=0us, DA=ff:ff:ff:ff:ff:ff, SA=00:00:00:00:00:01, BSSID=00:00:00:00:00:01, FragNumber=0, SeqNumber=0) ns3::LlcSnapHeader (type 0x800) ns3::Ipv4Header (tos 0x0 DSCP Default ECN Not-ECT ttl 1 id 0 protocol 17 offset (bytes) 0 flags [none] length: 48 10.1.1.1 > 255.255.255.255) ns3::UdpHeader (length: 28 4305 > 4305) ns3::BatmanPacket (BatmanPacket(Version=1, TTL=50, TQ=255, SeqNum=1, Orig=10.1.1.1, PrevSender=10.1.1.1, NumNeighbors=0)) ns3::WifiMacTrailer ()
t 0.058 /NodeList/2/DeviceList/0/$ns3::WifiNetDevice/Phy/State/Tx DsssRate1Mbps ns3::WifiMacHeader (DATA ToDS=0, FromDS=0, MoreFrag=0, Retry=0, MoreData=0 Duration/ID=0us, DA=ff:ff:ff:ff:ff:ff, SA=00:00:00:00:00:03, BSSID=00:00:00:00:00:03, FragNumber=0, SeqNumber=0) ns3::LlcSnapHeader (type 0x800) ns3::Ipv4Header (tos 0x0 DSCP Default ECN Not-ECT ttl 1 id 0 protocol 17 offset (bytes) 0 flags [none] length: 48 10.1.1.3 > 255.255.255.255) ns3::UdpHeader (length: 28 4305 > 4305) ns3::BatmanPacket (BatmanPacket(Version=1, TTL=50, TQ=255, SeqNum=1, Orig=10.1.1.3, PrevSender=10.1.1.3, NumNeighbors=0)) ns3::WifiMacTrailer ()
r 0.0588643 DsssRate1Mbps/NodeList/1/DeviceList/0/$ns3::WifiNetDevice/Phy/State/RxOk ns3::WifiMacHeader (DATA ToDS=0, FromDS=0, MoreFrag=0, Retry=0, MoreData=0 Duration/ID=0us, DA=ff:ff:ff:ff:ff:ff, SA=00:00:00:00:00:03, BSSID=00:00:00:00:00:03, FragNumber=0, SeqNumber=0) ns3::LlcSnapHeader (type 0x800) ns3::Ipv4Header (tos 0x0 DSCP Default ECN Not-ECT ttl 1 id 0 protocol 17 offset (bytes) 0 flags [none] length: 48 10.1.1.3 > 255.255.255.255) ns3::UdpHeader (length: 28 4305 > 4305) ns3::BatmanPacket (BatmanPacket(Version=1, TTL=50, TQ=255, SeqNum=1, Orig=10.1.1.3, PrevSender=10.1.1.3, NumNeighbors=0)) ns3::WifiMacTrailer ()
r 0.0588643 DsssRate1Mbps/NodeList/3/DeviceList/0/$ns3::WifiNetDevice/Phy/State/RxOk ns3::WifiMacHeader (DATA ToDS=0, FromDS=0, MoreFrag=0, Retry=0, MoreData=0 Duration/ID=0us, DA=ff:ff:ff:ff:ff:ff, SA=00:00:00:00:00:03, BSSID=00:00:00:00:00:03, FragNumber=0, SeqNumber=0) ns3::LlcSnapHeader (type 0x800) ns3::Ipv4Header (tos 0x0 DSCP Default ECN Not-ECT ttl 1 id 0 protocol 17 offset (bytes) 0 flags [none] length: 48 10.1.1.3 > 255.255.255.255) ns3::UdpHeader (length: 28 4305 > 4305) ns3::BatmanPacket (BatmanPacket(Version=1, TTL=50, TQ=255, SeqNum=1, Orig=10.1.1.3, PrevSender=10.1.1.3, NumNeighbors=0)) ns3::WifiMacTrailer ()
r 0.0588643 DsssRate1Mbps/NodeList/7/DeviceList/0/$ns3::WifiNetDevice/Phy/State/RxOk ns3::WifiMacHeader (DATA ToDS=0, FromDS=0, MoreFrag=0, Retry=0, MoreData=0 Duration/ID=0us, DA=ff:ff:ff:ff:ff:ff, SA=00:00:00:00:00:03, BSSID=00:00:00:00:00:03, FragNumber=0, SeqNumber=0) ns3::LlcSnapHeader (type 0x800) ns3::Ipv4Header (tos 0x0 DSCP Default ECN Not-ECT ttl 1 id 0 protocol 17 offset (bytes) 0 flags [none] length: 48 10.1.1.3 > 255.255.255.255) ns3::UdpHeader (length: 28 4305 > 4305) ns3::BatmanPacket (BatmanPacket(Version=1, TTL=50, TQ=255, SeqNum=1, Orig=10.1.1.3, PrevSender=10.1.1.3, NumNeighbors=0)) ns3::WifiMacTrailer ()
r 0.0588645 DsssRate1Mbps/NodeList/6/DeviceList/0/$ns3::WifiNetDevice/Phy/State/RxOk ns3::WifiMacHeader (DATA ToDS=0, FromDS=0, MoreFrag=0, Retry=0, MoreData=0 Duration/ID=0us, DA=ff:ff:ff:ff:ff:ff, SA=00:00:00:00:00:03, BSSID=00:00:00:00:00:03, FragNumber=0, SeqNumber=0) ns3::LlcSnapHeader (type 0x800) ns3::Ipv4Header (tos 0x0 DSCP Default ECN Not-ECT ttl 1 id 0 protocol 17 offset (bytes) 0 flags [none] length: 48 10.1.1.3 > 255.255.255.255) ns3::UdpHeader (length: 28 4305 > 4305) ns3::BatmanPacket (BatmanPacket(Version=1, TTL=50, TQ=255, SeqNum=1, Orig=10.1.1.3, PrevSender=10.1.1.3, NumNeighbors=0)) ns3::WifiMacTrailer ()
r 0.0588645 DsssRate1Mbps/NodeList/8/DeviceList/0/$ns3::WifiNetDevice/Phy/State/RxOk ns3::WifiMacHeader (DATA ToDS=0, FromDS=0, MoreFrag=0, Retry=0, MoreData=0 Duration/ID=0us, DA=ff:ff:ff:ff:ff:ff, SA=00:00:00:00:00:03, BSSID=00:00:00:00:00:03, FragNumber=0, SeqNumber=0) ns3::LlcSnapHeader (type 0x800) ns3::Ipv4Header (tos 0x0 DSCP Default ECN Not-ECT ttl 1 id 0 protocol 17 offset (bytes) 0 flags [none] length: 48 10.1.1.3 > 255.255.255.255) ns3::UdpHeader (length: 28 4305 > 4305) ns3::BatmanPacket (BatmanPacket(Version=1, TTL=50, TQ=255, SeqNum=1, Orig=10.1.1.3, PrevSender=10.1.1.3, NumNeighbors=0)) ns3::WifiMacTrailer ()
r 0.0588647 DsssRate1Mbps/NodeList/0/DeviceList/0/$ns3::WifiNetDevice/Phy/State/RxOk ns3::WifiMacHeader (DATA ToDS=0, FromDS=0, MoreFrag=0, Retry=0, MoreData=0 Duration/ID=0us, DA=ff:ff:ff:ff:ff:ff, SA=00:00:00:00:00:03, BSSID=00:00:00:00:00:03, FragNumber=0, SeqNumber=0) ns3::LlcSnapHeader (type 0x800) ns3::Ipv4Header (tos 0x0 DSCP Default ECN Not-ECT ttl 1 id 0 protocol 17 offset (bytes) 0 flags [none] length: 48 10.1.1.3 > 255.255.255.255) ns3::UdpHeader (length: 28 4305 > 4305) ns3::BatmanPacket (BatmanPacket(Version=1, TTL=50, TQ=255, SeqNum=1, Orig=10.1.1.3, PrevSender=10.1.1.3, NumNeighbors=0)) ns3::WifiMacTrailer ()