t 0.006 /NodeList/1/DeviceList/0/$ns3::WifiNetDevice/Phy/State/Tx DsssRate1Mbps ns3::WifiMacHeader (DATA ToDS=0, FromDS=0, MoreFrag=0, Retry=0, MoreData=0 Duration/ID=0us, DA=ff:ff:ff:ff:ff:ff, SA=00:00:00:00:00:02, BSSID=00:00:00:00:00:02, FragNumber=0, SeqNumber=0) ns3::LlcSnapHeader (type 0x800) ns3::Ipv4Header (tos 0x0 DSCP Default ECN Not-ECT ttl 1 id 0 protocol 17 offset (bytes) 0 flags [none] length: 48 10.1.1.2 > 255.255.255.255) ns3::UdpHeader (length: 28 4305 > 4305) ns3::BatmanPacket (BatmanPacket(Version=1, TTL=50, TQ=255, SeqNum=1, Orig=10.1.1.2, PrevSender=10.1.1.2, NumNeighbors=0)) ns3::WifiMacTrailer ()
r 0.00686433 DsssRate1Mbps/NodeList/0/DeviceList/0/$ns3::WifiNetDevice/Phy/State/RxOk ns3::WifiMacHeader (DATA ToDS=0, FromDS=0, MoreFrag=0, Retry=0, MoreData=0 Duration/ID=0us, DA=ff:ff:ff:ff:ff:ff, SA=00:00:00:00:00:02, BSSID=00:00:00:00:00:02, FragNumber=0, SeqNumber=0) ns3::LlcSnapHeader (type 0x800) ns3::Ipv4Header (tos 0x0 DSCP Default ECN Not-ECT ttl 1 id 0 protocol 17 offset (bytes) 0 flags [none] length: 48 10.1.1.2 > 255.255.255.255) ns3::UdpHeader (length: 28 4305 > 4305) ns3::BatmanPacket (BatmanPacket(Version=1, TTL=50, TQ=255, SeqNum=1, Orig=10.1.1.2, PrevSender=10.1.1.2, NumNeighbors=0)) ns3::WifiMacTrailer ()
r 0.00686433 DsssRate1Mbps/NodeList/2/DeviceList/0/$ns3::WifiNetDevice/Phy/State/RxOk ns3::WifiMacHeader (DATA ToDS=0, FromDS=0, MoreFrag=0, Retry=0, MoreData=0 Duration/ID=0us, DA=ff:ff:ff:ff:ff:ff, SA=00:00:00:00:00:02, BSSID=00:00:00:00:00:02, FragNumber=0, SeqNumber=0) ns3::LlcSnapHeader (type 0x800) ns3::Ipv4Header (tos 0x0 DSCP Default ECN Not-ECT ttl 1 id 0 protocol 17 offset (bytes) 0 flags [none] length: 48 10.1.1.2 > 255.255.255.255) ns3::UdpHeader (length: 28 4305 > 4305) ns3::BatmanPacket (BatmanPacket(Version=1, TTL=50, TQ=255, SeqNum=1, Orig=10.1.1.2, PrevSender=10.1.1.2, NumNeighbors=0)) ns3::WifiMacTrailer ()
r 0.00686467 DsssRate1Mbps/NodeList/3/DeviceList/0/$ns3::WifiNetDevice/Phy/State/RxOk ns3::WifiMacHeader (DATA ToDS=0, FromDS=0, MoreFrag=0, Retry=0, MoreData=0 Duration/ID=0us, DA=ff:ff:ff:ff:ff:ff, SA=00:00:00:00:00:02, BSSID=00:00:00:00:00:02, FragNumber=0, SeqNumber=0) ns3::LlcSnapHeader (type 0x800) ns3::Ipv4Header (tos 0x0 DSCP Default ECN Not-ECT ttl 1 id 0 protocol 17 offset (bytes) 0 flags [none] length: 48 10.1.1.2 > 255.255.255.255) ns3::UdpHeader (length: 28 4305 > 4305) ns3::BatmanPacket (BatmanPacket(Version=1, TTL=50, TQ=255, SeqNum=1, Orig=10.1.1.2, PrevSender=10.1.1.2, NumNeighbors=0)) ns3::WifiMacTrailer ()
r 0.006865 DsssRate1Mbps/NodeList/4/DeviceList/0/$ns3::WifiNetDevice/Phy/State/RxOk ns3::WifiMacHeader (DATA ToDS=0, FromDS=0, MoreFrag=0, Retry=0, MoreData=0 Duration/ID=0us, DA=ff:ff:ff:ff:ff:ff, SA=00:00:00:00:00:02, BSSID=00:00:00:00:00:02, FragNumber=0, SeqNumber=0) ns3::LlcSnapHeader (type 0x800) ns3::Ipv4Header (tos 0x0 DSCP Default ECN Not-ECT ttl 1 id 0 protocol 17 offset (bytes) 0 flags [none] length: 48 10.1.1.2 > 255.255.255.255) ns3::UdpHeader (length: 28 4305 > 4305) ns3::BatmanPacket (BatmanPacket(Version=1, TTL=50, TQ=255, SeqNum=1, Orig=10.1.1.2, PrevSender=10.1.1.2, NumNeighbors=0)) ns3::WifiMacTrailer ()
t 0.022 /NodeList/4/DeviceList/0/$ns3::WifiNetDevice/Phy/State/Tx DsssRate1Mbps ns3::WifiMacHeader (DATA ToDS=0, FromDS=0, MoreFrag=0, Retry=0, MoreData=0 Duration/ID=0us, DA=ff:ff:ff:ff:ff:ff, SA=00:00:00:00:00:05, BSSID=00:00:00:00:00:05, FragNumber=0, SeqNumber=0) ns3::LlcSnapHeader (type 0x800) ns3::Ipv4Header (tos 0x0 DSCP Default ECN Not-ECT ttl 1 id 0 protocol 17 offset (bytes) 0 flags [none] length: 48 10.1.1.5 > 255.255.255.255) ns3::UdpHeader (length: 28 4305 > 4305) ns3::BatmanPacket (BatmanPacket(Version=1, TTL=50, TQ=255, SeqNum=1, Orig=10.1.1.5, PrevSender=10.1.1.5, NumNeighbors=0)) ns3::WifiMacTrailer ()
r 0.0228643 DsssRate1Mbps/NodeList/3/DeviceList/0/$ns3::WifiNetDevice/Phy/State/RxOk ns3::WifiMacHeader (DATA ToDS=0, FromDS=0, MoreFrag=0, Retry=0, MoreData=0 Duration/ID=0us, DA=ff:ff:ff:ff:ff:ff, SA=00:00:00:00:00:05, BSSID=00:00:00:00:00:05, FragNumber=0, SeqNumber=0) ns3::LlcSnapHeader (type 0x800) ns3::Ipv4Header (tos 0x0 DSCP Default ECN Not-ECT ttl 1 id 0 protocol 17 offset (bytes) 0 flags [none] length: 48 10.1.1.5 > 255.255.255.255) ns3::UdpHeader (length: 28 4305 > 4305) ns3::BatmanPacket (BatmanPacket(Version=1, TTL=50, TQ=255, SeqNum=1, Orig=10.1.1.5, PrevSender=10.1.1.5, NumNeighbors=0)) ns3::WifiMacTrailer ()
r 0.0228647 DsssRate1Mbps/NodeList/2/DeviceList/0/$ns3::WifiNetDevice/Phy/State/RxOk ns3::WifiMacHeader (DATA ToDS=0, FromDS=0, MoreFrag=0, Retry=0, MoreData=0 Duration/ID=0us, DA=ff:ff:ff:ff:ff:ff, SA=00:00:00:00:00:05, BSSID=00:00:00:00:00:05, FragNumber=0, SeqNumber=0) ns3::LlcSnapHeader (type 0x800) ns3::Ipv4Header (tos 0x0 DSCP Default ECN Not-ECT ttl 1 id 0 protocol 17 offset (bytes) 0 flags [none] length: 48 10.1.1.5 > 255.255.255.255) ns3::UdpHeader (length: 28 4305 > 4305) ns3::BatmanPacket (BatmanPacket(Version=1, TTL=50, TQ=255, SeqNum=1, Orig=10.1.1.5, PrevSender=10.1.1.5, NumNeighbors=0)) ns3::WifiMacTrailer ()
r 0.022865 DsssRate1Mbps/NodeList/1/DeviceList/0/$ns3::WifiNetDevice/Phy/State/RxOk ns3::WifiMacHeader (DATA ToDS=0, FromDS=0, MoreFrag=0, Retry=0, MoreData=0 Duration/ID=0us, DA=ff:ff:ff:ff:ff:ff, SA=00:00:00:00:00:05, BSSID=00:00:00:00:00:05, FragNumber=0, SeqNumber=0) ns3::LlcSnapHeader (type 0x800) ns3::Ipv4Header (tos 0x0 DSCP Default ECN Not-ECT ttl 1 id 0 protocol 17 offset (bytes) 0 flags [none] length: 48 10.1.1.5 > 255.255.255.255) ns3::UdpHeader (length: 28 4305 > 4305) ns3::BatmanPacket (BatmanPacket(Version=1, TTL=50, TQ=255, SeqNum=1, Orig=10.1.1.5, PrevSender=10.1.1.5, NumNeighbors=0)) ns3::WifiMacTrailer ()
r 0.0228653 DsssRate1Mbps/NodeList/0/DeviceList/0/$ns3::WifiNetDevice/Phy/State/RxOk ns3::WifiMacHeader (DATA ToDS=0, FromDS=0, MoreFrag=0, Retry=0, MoreData=0 Duration/ID=0us, DA=ff:ff:ff:ff:ff:ff, SA=00:00:00:00:00:05, BSSID=00:00:00:00:00:05, FragNumber=0, SeqNumber=0) ns3::LlcSnapHeader (type 0x800) ns3::Ipv4Header (tos 0x0 DSCP Default ECN Not-ECT ttl 1 id 0 protocol 17 offset (bytes) 0 flags [none] length: 48 10.1.1.5 > 255.255.255.255) ns3::UdpHeader (length: 28 4305 > 4305) ns3::BatmanPacket (BatmanPacket(Version=1, TTL=50, TQ=255, SeqNum=1, Orig=10.1.1.5, PrevSender=10.1.1.5, NumNeighbors=0)) ns3::WifiMacTrailer ()
t 0.056 /NodeList/0/DeviceList/0/$ns3::WifiNetDevice/Phy/State/Tx DsssRate1Mbps ns3::WifiMacHeader (DATA ToDS=0, FromDS=0, MoreFrag=0, Retry=0, MoreData=0 Duration/ID=0us, DA=ff:ff:ff:ff:ff:ff, SA=00:00:00:00:00:01, BSSID=00:00:00:00:00:01, FragNumber=0, SeqNumber=0) ns3::LlcSnapHeader (type 0x800) ns3::Ipv4Header (tos 0x0 DSCP Default ECN Not-ECT ttl 1 id 0 protocol 17 offset (bytes) 0 flags [none] length: 48 10.1.1.1 > 255.255.255.255) ns3::UdpHeader (length: 28 4305 > 4305) ns3::BatmanPacket (BatmanPacket(Version=1, TTL=50, TQ=255, SeqNum=1, Orig=10.1.1.1, PrevSender=10.1.1.1, NumNeighbors=0)) ns3::WifiMacTrailer ()
r 0.0568643 DsssRate1Mbps/NodeList/1/DeviceList/0/$ns3::WifiNetDevice/Phy/State/RxOk ns3::WifiMacHeader (DATA ToDS=0, FromDS=0, MoreFrag=0, Retry=0, MoreData=0 Duration/ID=0us, DA=ff:ff:ff:ff:ff:ff, SA=00:00:00:00:00:01, BSSID=00:00:00:00:00:01, FragNumber=0, SeqNumber=0) ns3::LlcSnapHeader (type 0x800) ns3::Ipv4Header (tos 0x0 DSCP Default ECN Not-ECT ttl 1 id 0 protocol 17 offset (bytes) 0 flags [none] length: 48 10.1.1.1 > 255.255.255.255) ns3::UdpHeader (length: 28 4305 > 4305) ns3::BatmanPacket (BatmanPacket(Version=1, TTL=50, TQ=255, SeqNum=1, Orig=10.1.1.1, PrevSender=10.1.1.1, NumNeighbors=0)) ns3::WifiMacTrailer ()
r 0.0568647 DsssRate1Mbps/NodeList/2/DeviceList/0/$ns3::WifiNetDevice/Phy/State/RxOk ns3::WifiMacHeader (DATA ToDS=0, FromDS=0, MoreFrag=0, Retry=0, MoreData=0 Duration/ID=0us, DA=ff:ff:ff:ff:ff:ff, SA=00:00:00:00:00:01, BSSID=00:00:00:00:00:01, FragNumber=0, SeqNumber=0) ns3::LlcSnapHeader (type 0x800) ns3::Ipv4Header (tos 0x0 DSCP Default ECN Not-ECT ttl 1 id 0 protocol 17 offset (bytes) 0 flags [none] length: 48 10.1.1.1 > 255.255.255.255) ns3::UdpHeader (length: 28 4305 > 4305) ns3::BatmanPacket (BatmanPacket(Version=1, TTL=50, TQ=255, SeqNum=1, Orig=10.1.1.1, PrevSender=10.1.1.1, NumNeighbors=0)) ns3::WifiMacTrailer ()
r 0.056865 DsssRate1Mbps/NodeList/3/DeviceList/0/$ns3::WifiNetDevice/Phy/State/RxOk ns3::WifiMacHeader (DATA ToDS=0, FromDS=0, MoreFrag=0, Retry=0, MoreData=0 Duration/ID=0us, DA=ff:ff:ff:ff:ff:ff, SA=00:00:00:00:00:01, BSSID=00:00:00:00:00:01, FragNumber=0, SeqNumber=0) ns3::LlcSnapHeader (type 0x800) ns3::Ipv4Header (tos 0x0 DSCP Default ECN Not-ECT ttl 1 id 0 protocol 17 offset (bytes) 0 flags [none] length: 48 10.1.1.1 > 255.255.255.255) ns3::UdpHeader (length: 28 4305 > 4305) ns3::BatmanPacket (BatmanPacket(Version=1, TTL=50, TQ=255, SeqNum=1, Orig=10.1.1.1, PrevSender=10.1.1.1, NumNeighbors=0)) ns3::WifiMacTrailer ()
r 0.0568653 DsssRate1Mbps/NodeList/4/DeviceList/0/$ns3::WifiNetDevice/Phy/State/RxOk ns3::WifiMacHeader (DATA ToDS=0, FromDS=0, MoreFrag=0, Retry=0, MoreData=0 Duration/ID=0us, DA=ff:ff:ff:ff:ff:ff, SA=00:00:00:00:00:01, BSSID=00:00:00:00:00:01, FragNumber=0, SeqNumber=0) ns3::LlcSnapHeader (type 0x800) ns3::Ipv4Header (tos 0x0 DSCP Default ECN Not-ECT ttl 1 id 0 protocol 17 offset (bytes) 0 flags [none] length: 48 10.1.1.1 > 255.255.255.255) ns3::UdpHeader (length: 28 4305 > 4305) ns3::BatmanPacket (BatmanPacket(Version=1, TTL=50, TQ=255, SeqNum=1, Orig=10.1.1.1, PrevSender=10.1.1.1, NumNeighbors=0)) ns3::WifiMacTrailer ()
t 0.092 /NodeList/2/DeviceList/0/$ns3::WifiNetDevice/Phy/State/Tx DsssRate1Mbps ns3::WifiMacHeader (DATA ToDS=0, FromDS=0, MoreFrag=0, Retry=0, MoreData=0 Duration/ID=0us, DA=ff:ff:ff:ff:ff:ff, SA=00:00:00:00:00:03, BSSID=00:00:00:00:00:03, FragNumber=0, SeqNumber=0) ns3::LlcSnapHeader (type 0x800) ns3::Ipv4Header (tos 0x0 DSCP Default ECN Not-ECT ttl 1 id 0 protocol 17 offset (bytes) 0 flags [none] length: 48 10.1.1.3 > 255.255.255.255) ns3::UdpHeader (length: 28 4305 > 4305) ns3::BatmanPacket (BatmanPacket(Version=1, TTL=50, TQ=255, SeqNum=1, Orig=10.1.1.3, PrevSender=10.1.1.3, NumNeighbors=0)) ns3::WifiMacTrailer ()
r 0.0928643 DsssRate1Mbps/NodeList/3/DeviceList/0/$ns3::WifiNetDevice/Phy/State/RxOk ns3::WifiMacHeader (DATA ToDS=0, FromDS=0, MoreFrag=0, Retry=0, MoreData=0 Duration/ID=0us, DA=ff:ff:ff:ff:ff:ff, SA=00:00:00:00:00:03, BSSID=00:00:00:00:00:03, FragNumber=0, SeqNumber=0) ns3::LlcSnapHeader (type 0x800) ns3::Ipv4Header (tos 0x0 DSCP Default ECN Not-ECT ttl 1 id 0 protocol 17 offset (bytes) 0 flags [none] length: 48 10.1.1.3 > 255.255.255.255) ns3::UdpHeader (length: 28 4305 > 4305) ns3::BatmanPacket (BatmanPacket(Version=1, TTL=50, TQ=255, SeqNum=1, Orig=10.1.1.3, PrevSender=10.1.1.3, NumNeighbors=0)) ns3::WifiMacTrailer ()
r 0.0928643 DsssRate1Mbps/NodeList/1/DeviceList/0/$ns3::WifiNetDevice/Phy/State/RxOk ns3::WifiMacHeader (DATA ToDS=0, FromDS=0, MoreFrag=0, Retry=0, MoreData=0 Duration/ID=0us, DA=ff:ff:ff:ff:ff:ff, SA=00:00:00:00:00:03, BSSID=00:00:00:00:00:03, FragNumber=0, SeqNumber=0) ns3::LlcSnapHeader (type 0x800) ns3::Ipv4Header (tos 0x0 DSCP Default ECN Not-ECT ttl 1 id 0 protocol 17 offset (bytes) 0 flags [none] length: 48 10.1.1.3 > 255.255.255.255) ns3::UdpHeader (length: 28 4305 > 4305) ns3::BatmanPacket (BatmanPacket(Version=1, TTL=50, TQ=255, SeqNum=1, Orig=10.1.1.3, PrevSender=10.1.1.3, NumNeighbors=0)) ns3::WifiMacTrailer ()
r 0.0928647 DsssRate1Mbps/NodeList/0/DeviceList/0/$ns3::WifiNetDevice/Phy/State/RxOk ns3::WifiMacHeader (DATA ToDS=0, FromDS=0, MoreFrag=0, Retry=0, MoreData=0 Duration/ID=0us, DA=ff:ff:ff:ff:ff:ff, SA=00:00:00:00:00:03, BSSID=00:00:00:00:00:03, FragNumber=0, SeqNumber=0) ns3::LlcSnapHeader (type 0x800) ns3::Ipv4Header (tos 0x0 DSCP Default ECN Not-ECT ttl 1 id 0 protocol 17 offset (bytes) 0 flags [none] length: 48 10.1.1.3 > 255.255.255.255) ns3::UdpHeader (length: 28 4305 > 4305) ns3::BatmanPacket (BatmanPacket(Version=1, TTL=50, TQ=255, SeqNum=1, Orig=10.1.1.3, PrevSender=10.1.1.3, NumNeighbors=0)) ns3::WifiMacTrailer ()
r 0.0928647 DsssRate1Mbps/NodeList/4/DeviceList/0/$ns3::WifiNetDevice/Phy/State/RxOk ns3::WifiMacHeader (DATA ToDS=0, FromDS=0, MoreFrag=0, Retry=0, MoreData=0 Duration/ID=0us, DA=ff:ff:ff:ff:ff:ff, SA=00:00:00:00:00:03, BSSID=00:00:00:00:00:03, FragNumber=0, SeqNumber=0) ns3::LlcSnapHeader (type 0x800) ns3::Ipv4Header (tos 0x0 DSCP Default ECN Not-ECT ttl 1 id 0 protocol 17 offset (bytes) 0 flags [none] length: 48 10.1.1.3 > 255.255.255.255) ns3::UdpHeader (length: 28 4305 > 4305) ns3::BatmanPacket (BatmanPacket(Version=1, TTL=50, TQ=255, SeqNum=1, Orig=10.1.1.3, PrevSender=10.1.1.3, NumNeighbors=0)) ns3::WifiMacTrailer ()
t 0.097 /NodeList/3/DeviceList/0/$ns3::WifiNetDevice/Phy/State/Tx DsssRate1Mbps ns3::WifiMacHeader (DATA ToDS=0, FromDS=0, MoreFrag=0, Retry=0, MoreData=0 Duration/ID=0us, DA=ff:ff:ff:ff:ff:ff, SA=00:00:00:00:00:04, BSSID=00:00:00:00:00:04, FragNumber=0, SeqNumber=0) ns3::LlcSnapHeader (type 0x800) ns3::Ipv4Header (tos 0x0 DSCP Default ECN Not-ECT ttl 1 id 0 protocol 17 offset (bytes) 0 flags [none] length: 48 10.1.1.4 > 255.255.255.255) ns3::UdpHeader (length: 28 4305 > 4305) ns3::BatmanPacket (BatmanPacket(Version=1, TTL=50, TQ=255, SeqNum=1, Orig=10.1.1.4, PrevSender=10.1.1.4, NumNeighbors=0)) ns3::WifiMacTrailer ()
r 0.0978643 DsssRate1Mbps/NodeList/4/DeviceList/0/$ns3::WifiNetDevice/Phy/State/RxOk ns3::WifiMacHeader (DATA ToDS=0, FromDS=0, MoreFrag=0, Retry=0, MoreData=0 Duration/ID=0us, DA=ff:ff:ff:ff:ff:ff, SA=00:00:00:00:00:04, BSSID=00:00:00:00:00:04, FragNumber=0, SeqNumber=0) ns3::LlcSnapHeader (type 0x800) ns3::Ipv4Header (tos 0x0 DSCP Default ECN Not-ECT ttl 1 id 0 protocol 17 offset (bytes) 0 flags [none] length: 48 10.1.1.4 > 255.255.255.255) ns3::UdpHeader (length: 28 4305 > 4305) ns3::BatmanPacket (BatmanPacket(Version=1, TTL=50, TQ=255, SeqNum=1, Orig=10.1.1.4, PrevSender=10.1.1.4, NumNeighbors=0)) ns3::WifiMacTrailer ()
r 0.0978643 DsssRate1Mbps/NodeList/2/DeviceList/0/$ns3::WifiNetDevice/Phy/State/RxOk ns3::WifiMacHeader (DATA ToDS=0, FromDS=0, MoreFrag=0, Retry=0, MoreData=0 Duration/ID=0us, DA=ff:ff:ff:ff:ff:ff, SA=00:00:00:00:00:04, BSSID=00:00:00:00:00:04, FragNumber=0, SeqNumber=0) ns3::LlcSnapHeader (type 0x800) ns3::Ipv4Header (tos 0x0 DSCP Default ECN Not-ECT ttl 1 id 0 protocol 17 offset (bytes) 0 flags [none] length: 48 10.1.1.4 > 255.255.255.255) ns3::UdpHeader (length: 28 4305 > 4305) ns3::BatmanPacket (BatmanPacket(Version=1, TTL=50, TQ=255, SeqNum=1, Orig=10.1.1.4, PrevSender=10.1.1.4, NumNeighbors=0)) ns3::WifiMacTrailer ()
r 0.0978647 DsssRate1Mbps/NodeList/1/DeviceList/0/$ns3::WifiNetDevice/Phy/State/RxOk ns3::WifiMacHeader (DATA ToDS=0, FromDS=0, MoreFrag=0, Retry=0, MoreData=0 Duration/ID=0us, DA=ff:ff:ff:ff:ff:ff, SA=00:00:00:00:00:04, BSSID=00:00:00:00:00:04, FragNumber=0, SeqNumber=0) ns3::LlcSnapHeader (type 0x800) ns3::Ipv4Header (tos 0x0 DSCP Default ECN Not-ECT ttl 1 id 0 protocol 17 offset (bytes) 0 flags [none] length: 48 10.1.1.4 > 255.255.255.255) ns3::UdpHeader (length: 28 4305 > 4305) ns3::BatmanPacket (BatmanPacket(Version=1, TTL=50, TQ=255, SeqNum=1, Orig=10.1.1.4, PrevSender=10.1.1.4, NumNeighbors=0)) ns3::WifiMacTrailer ()
r 0.097865 DsssRate1Mbps/NodeList/0/DeviceList/0/$ns3::WifiNetDevice/Phy/State/RxOk ns3::WifiMacHeader (DATA ToDS=0, FromDS=0, MoreFrag=0, Retry=0, MoreData=0 Duration/ID=0us, DA=ff:ff:ff:ff:ff:ff, SA=00:00:00:00:00:04, BSSID=00:00:00:00:00:04, FragNumber=0, SeqNumber=0) ns3::LlcSnapHeader (type 0x800) ns3::Ipv4Header (tos 0x0 DSCP Default ECN Not-ECT ttl 1 id 0 protocol 17 offset (bytes) 0 flags [none] length: 48 10.1.1.4 > 255.255.255.255) ns3::UdpHeader (length: 28 4305 > 4305) ns3::BatmanPacket (BatmanPacket(Version=1, TTL=50, TQ=255, SeqNum=1, Orig=10.1.1.4, PrevSender=10.1.1.4, NumNeighbors=0)) ns3::WifiMacTrailer ()
t 1.006 /NodeList/1/DeviceList/0/$ns3::WifiNetDevice/Phy/State/Tx DsssRate1Mbps ns3::WifiMacHeader (DATA ToDS=0, FromDS=0, MoreFrag=0, Retry=0, MoreData=0 Duration/ID=0us, DA=ff:ff:ff:ff:ff:ff, SA=00:00:00:00:00:02, BSSID=00:00:00:00:00:02, FragNumber=0, SeqNumber=1) ns3::LlcSnapHeader (type 0x800) ns3::Ipv4Header (tos 0x0 DSCP Default ECN Not-ECT ttl 1 id 1 protocol 17 offset (bytes) 0 flags [none] length: 48 10.1.1.2 > 255.255.255.255) ns3::UdpHeader (length: 28 4305 > 4305) ns3::BatmanPacket (BatmanPacket(Version=1, TTL=50, TQ=255, SeqNum=2, Orig=10.1.1.2, PrevSender=10.1.1.2, NumNeighbors=0)) ns3::WifiMacTrailer ()
r 1.00686 DsssRate1Mbps/NodeList/2/DeviceList/0/$ns3::WifiNetDevice/Phy/State/RxOk ns3::WifiMacHeader (DATA ToDS=0, FromDS=0, MoreFrag=0, Retry=0, MoreData=0 Duration/ID=0us, DA=ff:ff:ff:ff:ff:ff, SA=00:00:00:00:00:02, BSSID=00:00:00:00:00:02, FragNumber=0, SeqNumber=1) ns3::LlcSnapHeader (type 0x800) ns3::Ipv4Header (tos 0x0 DSCP Default ECN Not-ECT ttl 1 id 1 protocol 17 offset (bytes) 0 flags [none] length: 48 10.1.1.2 > 255.255.255.255) ns3::UdpHeader (length: 28 4305 > 4305) ns3::BatmanPacket (BatmanPacket(Version=1, TTL=50, TQ=255, SeqNum=2, Orig=10.1.1.2, PrevSender=10.1.1.2, NumNeighbors=0)) ns3::WifiMacTrailer ()
r 1.00686 DsssRate1Mbps/NodeList/0/DeviceList/0/$ns3::WifiNetDevice/Phy/State/RxOk ns3::WifiMacHeader (DATA ToDS=0, FromDS=0, MoreFrag=0, Retry=0, MoreData=0 Duration/ID=0us, DA=ff:ff:ff:ff:ff:ff, SA=00:00:00:00:00:02, BSSID=00:00:00:00:00:02, FragNumber=0, SeqNumber=1) ns3::LlcSnapHeader (type 0x800) ns3::Ipv4Header (tos 0x0 DSCP Default ECN Not-ECT ttl 1 id 1 protocol 17 offset (bytes) 0 flags [none] length: 48 10.1.1.2 > 255.255.255.255) ns3::UdpHeader (length: 28 4305 > 4305) ns3::BatmanPacket (BatmanPacket(Version=1, TTL=50, TQ=255, SeqNum=2, Orig=10.1.1.2, PrevSender=10.1.1.2, NumNeighbors=0)) ns3::WifiMacTrailer ()
r 1.00686 DsssRate1Mbps/NodeList/3/DeviceList/0/$ns3::WifiNetDevice/Phy/State/RxOk ns3::WifiMacHeader (DATA ToDS=0, FromDS=0, MoreFrag=0, Retry=0, MoreData=0 Duration/ID=0us, DA=ff:ff:ff:ff:ff:ff, SA=00:00:00:00:00:02, BSSID=00:00:00:00:00:02, FragNumber=0, SeqNumber=1) ns3::LlcSnapHeader (type 0x800) ns3::Ipv4Header (tos 0x0 DSCP Default ECN Not-ECT ttl 1 id 1 protocol 17 offset (bytes) 0 flags [none] length: 48 10.1.1.2 > 255.255.255.255) ns3::UdpHeader (length: 28 4305 > 4305) ns3::BatmanPacket (BatmanPacket(Version=1, TTL=50, TQ=255, SeqNum=2, Orig=10.1.1.2, PrevSender=10.1.1.2, NumNeighbors=0)) ns3::WifiMacTrailer ()
r 1.00686 DsssRate1Mbps/NodeList/4/DeviceList/0/$ns3::WifiNetDevice/Phy/State/RxOk ns3::WifiMacHeader (DATA ToDS=0, FromDS=0, MoreFrag=0, Retry=0, MoreData=0 Duration/ID=0us, DA=ff:ff:ff:ff:ff:ff, SA=00:00:00:00:00:02, BSSID=00:00:00:00:00:02, FragNumber=0, SeqNumber=1) ns3::LlcSnapHeader (type 0x800) ns3::Ipv4Header (tos 0x0 DSCP Default ECN Not-ECT ttl 1 id 1 protocol 17 offset (bytes) 0 flags [none] length: 48 10.1.1.2 > 255.255.255.255) ns3::UdpHeader (length: 28 4305 > 4305) ns3::BatmanPacket (BatmanPacket(Version=1, TTL=50, TQ=255, SeqNum=2, Orig=10.1.1.2, PrevSender=10.1.1.2, NumNeighbors=0)) ns3::WifiMacTrailer ()
t 1.022 /NodeList/4/DeviceList/0/$ns3::WifiNetDevice/Phy/State/Tx DsssRate1Mbps ns3::WifiMacHeader (DATA ToDS=0, FromDS=0, MoreFrag=0, Retry=0, MoreData=0 Duration/ID=0us, DA=ff:ff:ff:ff:ff:ff, SA=00:00:00:00:00:05, BSSID=00:00:00:00:00:05, FragNumber=0, SeqNumber=1) ns3::LlcSnapHeader (type 0x800) ns3::Ipv4Header (tos 0x0 DSCP Default ECN Not-ECT ttl 1 id 1 protocol 17 offset (bytes) 0 flags [none] length: 48 10.1.1.5 > 255.255.255.255) ns3::UdpHeader (length: 28 4305 > 4305) ns3::BatmanPacket (BatmanPacket(Version=1, TTL=50, TQ=255, SeqNum=2, Orig=10.1.1.5, PrevSender=10.1.1.5, NumNeighbors=0)) ns3::WifiMacTrailer ()
r 1.02286 DsssRate1Mbps/NodeList/3/DeviceList/0/$ns3::WifiNetDevice/Phy/State/RxOk ns3::WifiMacHeader (DATA ToDS=0, FromDS=0, MoreFrag=0, Retry=0, MoreData=0 Duration/ID=0us, DA=ff:ff:ff:ff:ff:ff, SA=00:00:00:00:00:05, BSSID=00:00:00:00:00:05, FragNumber=0, SeqNumber=1) ns3::LlcSnapHeader (type 0x800) ns3::Ipv4Header (tos 0x0 DSCP Default ECN Not-ECT ttl 1 id 1 protocol 17 offset (bytes) 0 flags [none] length: 48 10.1.1.5 > 255.255.255.255) ns3::UdpHeader (length: 28 4305 > 4305) ns3::BatmanPacket (BatmanPacket(Version=1, TTL=50, TQ=255, SeqNum=2, Orig=10.1.1.5, PrevSender=10.1.1.5, NumNeighbors=0)) ns3::WifiMacTrailer ()
r 1.02286 DsssRate1Mbps/NodeList/2/DeviceList/0/$ns3::WifiNetDevice/Phy/State/RxOk ns3::WifiMacHeader (DATA ToDS=0, FromDS=0, MoreFrag=0, Retry=0, MoreData=0 Duration/ID=0us, DA=ff:ff:ff:ff:ff:ff, SA=00:00:00:00:00:05, BSSID=00:00:00:00:00:05, FragNumber=0, SeqNumber=1) ns3::LlcSnapHeader (type 0x800) ns3::Ipv4Header (tos 0x0 DSCP Default ECN Not-ECT ttl 1 id 1 protocol 17 offset (bytes) 0 flags [none] length: 48 10.1.1.5 > 255.255.255.255) ns3::UdpHeader (length: 28 4305 > 4305) ns3::BatmanPacket (BatmanPacket(Version=1, TTL=50, TQ=255, SeqNum=2, Orig=10.1.1.5, PrevSender=10.1.1.5, NumNeighbors=0)) ns3::WifiMacTrailer ()
r 1.02286 DsssRate1Mbps/NodeList/1/DeviceList/0/$ns3::WifiNetDevice/Phy/State/RxOk ns3::WifiMacHeader (DATA ToDS=0, FromDS=0, MoreFrag=0, Retry=0, MoreData=0 Duration/ID=0us, DA=ff:ff:ff:ff:ff:ff, SA=00:00:00:00:00:05, BSSID=00:00:00:00:00:05, FragNumber=0, SeqNumber=1) ns3::LlcSnapHeader (type 0x800) ns3::Ipv4Header (tos 0x0 DSCP Default ECN Not-ECT ttl 1 id 1 protocol 17 offset (bytes) 0 flags [none] length: 48 10.1.1.5 > 255.255.255.255) ns3::UdpHeader (length: 28 4305 > 4305) ns3::BatmanPacket (BatmanPacket(Version=1, TTL=50, TQ=255, SeqNum=2, Orig=10.1.1.5, PrevSender=10.1.1.5, NumNeighbors=0)) ns3::WifiMacTrailer ()
r 1.02287 DsssRate1Mbps/NodeList/0/DeviceList/0/$ns3::WifiNetDevice/Phy/State/RxOk ns3::WifiMacHeader (DATA ToDS=0, FromDS=0, MoreFrag=0, Retry=0, MoreData=0 Duration/ID=0us, DA=ff:ff:ff:ff:ff:ff, SA=00:00:00:00:00:05, BSSID=00:00:00:00:00:05, FragNumber=0, SeqNumber=1) ns3::LlcSnapHeader (type 0x800) ns3::Ipv4Header (tos 0x0 DSCP Default ECN Not-ECT ttl 1 id 1 protocol 17 offset (bytes) 0 flags [none] length: 48 10.1.1.5 > 255.255.255.255) ns3::UdpHeader (length: 28 4305 > 4305) ns3::BatmanPacket (BatmanPacket(Version=1, TTL=50, TQ=255, SeqNum=2, Orig=10.1.1.5, PrevSender=10.1.1.5, NumNeighbors=0)) ns3::WifiMacTrailer ()
t 1.056 /NodeList/0/DeviceList/0/$ns3::WifiNetDevice/Phy/State/Tx DsssRate1Mbps ns3::WifiMacHeader (DATA ToDS=0, FromDS=0, MoreFrag=0, Retry=0, MoreData=0 Duration/ID=0us, DA=ff:ff:ff:ff:ff:ff, SA=00:00:00:00:00:01, BSSID=00:00:00:00:00:01, FragNumber=0, SeqNumber=1) ns3::LlcSnapHeader (type 0x800) ns3::Ipv4Header (tos 0x0 DSCP Default ECN Not-ECT ttl 1 id 1 protocol 17 offset (bytes) 0 flags [none] length: 48 10.1.1.1 > 255.255.255.255) ns3::UdpHeader (length: 28 4305 > 4305) ns3::BatmanPacket (BatmanPacket(Version=1, TTL=50, TQ=255, SeqNum=2, Orig=10.1.1.1, PrevSender=10.1.1.1, NumNeighbors=0)) ns3::WifiMacTrailer ()
r 1.05686 DsssRate1Mbps/NodeList/1/DeviceList/0/$ns3::WifiNetDevice/Phy/State/RxOk ns3::WifiMacHeader (DATA ToDS=0, FromDS=0, MoreFrag=0, Retry=0, MoreData=0 Duration/ID=0us, DA=ff:ff:ff:ff:ff:ff, SA=00:00:00:00:00:01, BSSID=00:00:00:00:00:01, FragNumber=0, SeqNumber=1) ns3::LlcSnapHeader (type 0x800) ns3::Ipv4Header (tos 0x0 DSCP Default ECN Not-ECT ttl 1 id 1 protocol 17 offset (bytes) 0 flags [none] length: 48 10.1.1.1 > 255.255.255.255) ns3::UdpHeader (length: 28 4305 > 4305) ns3::BatmanPacket (BatmanPacket(Version=1, TTL=50, TQ=255, SeqNum=2, Orig=10.1.1.1, PrevSender=10.1.1.1, NumNeighbors=0)) ns3::WifiMacTrailer ()
r 1.05686 DsssRate1Mbps/NodeList/2/DeviceList/0/$ns3::WifiNetDevice/Phy/State/RxOk ns3::WifiMacHeader (DATA ToDS=0, FromDS=0, MoreFrag=0, Retry=0, MoreData=0 Duration/ID=0us, DA=ff:ff:ff:ff:ff:ff, SA=00:00:00:00:00:01, BSSID=00:00:00:00:00:01, FragNumber=0, SeqNumber=1) ns3::LlcSnapHeader (type 0x800) ns3::Ipv4Header (tos 0x0 DSCP Default ECN Not-ECT ttl 1 id 1 protocol 17 offset (bytes) 0 flags [none] length: 48 10.1.1.1 > 255.255.255.255) ns3::UdpHeader (length: 28 4305 > 4305) ns3::BatmanPacket (BatmanPacket(Version=1, TTL=50, TQ=255, SeqNum=2, Orig=10.1.1.1, PrevSender=10.1.1.1, NumNeighbors=0)) ns3::WifiMacTrailer ()
r 1.05687 DsssRate1Mbps/NodeList/3/DeviceList/0/$ns3::WifiNetDevice/Phy/State/RxOk ns3::WifiMacHeader (DATA ToDS=0, FromDS=0, MoreFrag=0, Retry=0, MoreData=0 Duration/ID=0us, DA=ff:ff:ff:ff:ff:ff, SA=00:00:00:00:00:01, BSSID=00:00:00:00:00:01, FragNumber=0, SeqNumber=1) ns3::LlcSnapHeader (type 0x800) ns3::Ipv4Header (tos 0x0 DSCP Default ECN Not-ECT ttl 1 id 1 protocol 17 offset (bytes) 0 flags [none] length: 48 10.1.1.1 > 255.255.255.255) ns3::UdpHeader (length: 28 4305 > 4305) ns3::BatmanPacket (BatmanPacket(Version=1, TTL=50, TQ=255, SeqNum=2, Orig=10.1.1.1, PrevSender=10.1.1.1, NumNeighbors=0)) ns3::WifiMacTrailer ()
r 1.05687 DsssRate1Mbps/NodeList/4/DeviceList/0/$ns3::WifiNetDevice/Phy/State/RxOk ns3::WifiMacHeader (DATA ToDS=0, FromDS=0, MoreFrag=0, Retry=0, MoreData=0 Duration/ID=0us, DA=ff:ff:ff:ff:ff:ff, SA=00:00:00:00:00:01, BSSID=00:00:00:00:00:01, FragNumber=0, SeqNumber=1) ns3::LlcSnapHeader (type 0x800) ns3::Ipv4Header (tos 0x0 DSCP Default ECN Not-ECT ttl 1 id 1 protocol 17 offset (bytes) 0 flags [none] length: 48 10.1.1.1 > 255.255.255.255) ns3::UdpHeader (length: 28 4305 > 4305) ns3::BatmanPacket (BatmanPacket(Version=1, TTL=50, TQ=255, SeqNum=2, Orig=10.1.1.1, PrevSender=10.1.1.1, NumNeighbors=0)) ns3::WifiMacTrailer ()
t 1.092 /NodeList/2/DeviceList/0/$ns3::WifiNetDevice/Phy/State/Tx DsssRate1Mbps ns3::WifiMacHeader (DATA ToDS=0, FromDS=0, MoreFrag=0, Retry=0, MoreData=0 Duration/ID=0us, DA=ff:ff:ff:ff:ff:ff, SA=00:00:00:00:00:03, BSSID=00:00:00:00:00:03, FragNumber=0, SeqNumber=1) ns3::LlcSnapHeader (type 0x800) ns3::Ipv4Header (tos 0x0 DSCP Default ECN Not-ECT ttl 1 id 1 protocol 17 offset (bytes) 0 flags [none] length: 48 10.1.1.3 > 255.255.255.255) ns3::UdpHeader (length: 28 4305 > 4305) ns3::BatmanPacket (BatmanPacket(Version=1, TTL=50, TQ=255, SeqNum=2, Orig=10.1.1.3, PrevSender=10.1.1.3, NumNeighbors=0)) ns3::WifiMacTrailer ()
r 1.09286 DsssRate1Mbps/NodeList/1/DeviceList/0/$ns3::WifiNetDevice/Phy/State/RxOk ns3::WifiMacHeader (DATA ToDS=0, FromDS=0, MoreFrag=0, Retry=0, MoreData=0 Duration/ID=0us, DA=ff:ff:ff:ff:ff:ff, SA=00:00:00:00:00:03, BSSID=00:00:00:00:00:03, FragNumber=0, SeqNumber=1) ns3::LlcSnapHeader (type 0x800) ns3::Ipv4Header (tos 0x0 DSCP Default ECN Not-ECT ttl 1 id 1 protocol 17 offset (bytes) 0 flags [none] length: 48 10.1.1.3 > 255.255.255.255) ns3::UdpHeader (length: 28 4305 > 4305) ns3::BatmanPacket (BatmanPacket(Version=1, TTL=50, TQ=255, SeqNum=2, Orig=10.1.1.3, PrevSender=10.1.1.3, NumNeighbors=0)) ns3::WifiMacTrailer ()
r 1.09286 DsssRate1Mbps/NodeList/3/DeviceList/0/$ns3::WifiNetDevice/Phy/State/RxOk ns3::WifiMacHeader (DATA ToDS=0, FromDS=0, MoreFrag=0, Retry=0, MoreData=0 Duration/ID=0us, DA=ff:ff:ff:ff:ff:ff, SA=00:00:00:00:00:03, BSSID=00:00:00:00:00:03, FragNumber=0, SeqNumber=1) ns3::LlcSnapHeader (type 0x800) ns3::Ipv4Header (tos 0x0 DSCP Default ECN Not-ECT ttl 1 id 1 protocol 17 offset (bytes) 0 flags [none] length: 48 10.1.1.3 > 255.255.255.255) ns3::UdpHeader (length: 28 4305 > 4305) ns3::BatmanPacket (BatmanPacket(Version=1, TTL=50, TQ=255, SeqNum=2, Orig=10.1.1.3, PrevSender=10.1.1.3, NumNeighbors=0)) ns3::WifiMacTrailer ()
r 1.09286 DsssRate1Mbps/NodeList/4/DeviceList/0/$ns3::WifiNetDevice/Phy/State/RxOk ns3::WifiMacHeader (DATA ToDS=0, FromDS=0, MoreFrag=0, Retry=0, MoreData=0 Duration/ID=0us, DA=ff:ff:ff:ff:ff:ff, SA=00:00:00:00:00:03, BSSID=00:00:00:00:00:03, FragNumber=0, SeqNumber=1) ns3::LlcSnapHeader (type 0x800) ns3::Ipv4Header (tos 0x0 DSCP Default ECN Not-ECT ttl 1 id 1 protocol 17 offset (bytes) 0 flags [none] length: 48 10.1.1.3 > 255.255.255.255) ns3::UdpHeader (length: 28 4305 > 4305) ns3::BatmanPacket (BatmanPacket(Version=1, TTL=50, TQ=255, SeqNum=2, Orig=10.1.1.3, PrevSender=10.1.1.3, NumNeighbors=0)) ns3::WifiMacTrailer ()
r 1.09286 DsssRate1Mbps/NodeList/0/DeviceList/0/$ns3::WifiNetDevice/Phy/State/RxOk ns3::WifiMacHeader (DATA ToDS=0, FromDS=0, MoreFrag=0, Retry=0, MoreData=0 Duration/ID=0us, DA=ff:ff:ff:ff:ff:ff, SA=00:00:00:00:00:03, BSSID=00:00:00:00:00:03, FragNumber=0, SeqNumber=1) ns3::LlcSnapHeader (type 0x800) ns3::Ipv4Header (tos 0x0 DSCP Default ECN Not-ECT ttl 1 id 1 protocol 17 offset (bytes) 0 flags [none] length: 48 10.1.1.3 > 255.255.255.255) ns3::UdpHeader (length: 28 4305 > 4305) ns3::BatmanPacket (BatmanPacket(Version=1, TTL=50, TQ=255, SeqNum=2, Orig=10.1.1.3, PrevSender=10.1.1.3, NumNeighbors=0)) ns3::WifiMacTrailer ()
t 1.097 /NodeList/3/DeviceList/0/$ns3::WifiNetDevice/Phy/State/Tx DsssRate1Mbps ns3::WifiMacHeader (DATA ToDS=0, FromDS=0, MoreFrag=0, Retry=0, MoreData=0 Duration/ID=0us, DA=ff:ff:ff:ff:ff:ff, SA=00:00:00:00:00:04, BSSID=00:00:00:00:00:04, FragNumber=0, SeqNumber=1) ns3::LlcSnapHeader (type 0x800) ns3::Ipv4Header (tos 0x0 DSCP Default ECN Not-ECT ttl 1 id 1 protocol 17 offset (bytes) 0 flags [none] length: 48 10.1.1.4 > 255.255.255.255) ns3::UdpHeader (length: 28 4305 > 4305) ns3::BatmanPacket (BatmanPacket(Version=1, TTL=50, TQ=255, SeqNum=2, Orig=10.1.1.4, PrevSender=10.1.1.4, NumNeighbors=0)) ns3::WifiMacTrailer ()
r 1.09786 DsssRate1Mbps/NodeList/4/DeviceList/0/$ns3::WifiNetDevice/Phy/State/RxOk ns3::WifiMacHeader (DATA ToDS=0, FromDS=0, MoreFrag=0, Retry=0, MoreData=0 Duration/ID=0us, DA=ff:ff:ff:ff:ff:ff, SA=00:00:00:00:00:04, BSSID=00:00:00:00:00:04, FragNumber=0, SeqNumber=1) ns3::LlcSnapHeader (type 0x800) ns3::Ipv4Header (tos 0x0 DSCP Default ECN Not-ECT ttl 1 id 1 protocol 17 offset (bytes) 0 flags [none] length: 48 10.1.1.4 > 255.255.255.255) ns3::UdpHeader (length: 28 4305 > 4305) ns3::BatmanPacket (BatmanPacket(Version=1, TTL=50, TQ=255, SeqNum=2, Orig=10.1.1.4, PrevSender=10.1.1.4, NumNeighbors=0)) ns3::WifiMacTrailer ()